# The following is an example of an XSF file of a periodic structure. 
# The PRIMVEC block contains the lattice vectors in rows. 
# For periodic structures, 
# the number of atoms in the simulation cell has to be specified on the line following the keyword PRIMCOORD (the example is for 24 atoms). 
# Note that the number 1 following the atom count is not relevant for ænet. 
# It is advisable to work with a greater number of decimals for the coordinates and atomic forces than used in the example to avoid loss of accuracy.

# total energy = -147.96846840 eV
 
CRYSTAL
PRIMVEC
5.929273    0.000000    0.000000
-2.964636    5.134901    0.000000
0.000000    0.000000    11.744444
PRIMCOORD
24 1
Fe	      1.58093      3.48291      1.42138        -0.002155     -0.018765      0.037778
Fe	     -0.73882      2.02432      1.42138        -0.015174      0.011248      0.037778
Fe	     -0.84211      4.76257      1.42138         0.017328      0.007516      0.037778
Fe	     -0.84211      4.76257      4.45084         0.017328      0.007516     -0.037778
Fe	     -0.73882      2.02432      4.45084        -0.015174      0.011248     -0.037778
Fe	      1.58093      3.48291      4.45084        -0.002155     -0.018765     -0.037778
Fe	      2.22582      3.11058      7.29360        -0.015174     -0.011248      0.037778
Fe	      4.54557      1.65200      7.29360        -0.002155      0.018765      0.037778
Fe	      2.12252      0.37233      7.29360         0.017328     -0.007516      0.037778
Fe	      2.12252      0.37233     10.32306         0.017328     -0.007516     -0.037778
Fe	      2.22582      3.11058     10.32306        -0.015174     -0.011248     -0.037778
Fe	      4.54557      1.65200     10.32306        -0.002155      0.018765     -0.037778
S	      3.92302      0.00881      8.80833         0.096859     -0.094027     -0.000000
S	      2.96464      1.71163      5.57425        -0.000000      0.000000     -0.025816
S	     -0.00000      3.42327     11.44648        -0.000000      0.000000     -0.025816
S	      1.01075      1.73306      8.80833        -0.129859     -0.036869     -0.000000
S	      3.96013      3.39303      8.80833         0.033000      0.130895     -0.000000
S	      0.99550      1.74187      2.93611         0.033000     -0.130895     -0.000000
S	      0.00000      0.00000      5.87222        -0.000000      0.000000     -0.000000
S	      2.96464      1.71163      0.29797        -0.000000      0.000000      0.025816
S	     -0.00000      3.42327      6.17019        -0.000000      0.000000      0.025816
S	      0.95839      5.12609      2.93611         0.096859      0.094027     -0.000000
S	      0.00000      0.00000      0.00000        -0.000000      0.000000     -0.000000
S	     -1.95389      3.40184      2.93611        -0.129859      0.036869     -0.000000
